5
step=0 E=0
C      0.000000     0.000000     0.000000
H      0.630886     0.000000    -0.892211
H      0.630886     0.000000     0.892210
H     -0.630888    -0.892209    -0.000002
H     -0.630888     0.892209    -0.000004
5
step=1 E=1.1941e1
C     -0.000000    -0.000000    -0.000000
H      0.552025     0.000000    -0.780685
H      0.552025     0.000000     0.780684
H     -0.552027    -0.780683    -0.000002
H     -0.552027     0.780683    -0.000004
